ITEM: TIMESTEP
0
ITEM: NUMBER OF ATOMS
256
ITEM: BOX BOUNDS xy xz yz pp pp pp
0.0000000000000000e+00 9.2377790526037913e+00 1.6795961913825073e+00
0.0000000000000000e+00 7.0543040038065303e+00 8.3979809569125363e-01
0.0000000000000000e+00 6.7183847655300291e+00 3.3591923827650150e-01
ITEM: ATOMS id type x y z ix iy iz
1 1 0 0 0 0 0 0
2 1 0.839798 0.839798 0 0 0 0
3 1 1.6796 0 0 0 0 0
4 1 2.51939 0.839798 0 0 0 0
5 1 1.6796 0.839798 0.839798 0 0 0
6 1 3.35919 0 0 0 0 0
7 1 4.19899 0.839798 0 0 0 0
8 1 3.35919 0.839798 0.839798 0 0 0
9 1 5.03879 0 0 0 0 0
10 1 5.87859 0.839798 0 0 0 0
11 1 5.03879 0.839798 0.839798 0 0 0
12 1 6.71838 0.839798 0.839798 0 0 0
13 1 0.839798 2.51939 0 0 0 0
14 1 0.839798 1.6796 0.839798 0 0 0
15 1 1.6796 1.6796 0 0 0 0
16 1 2.51939 2.51939 0 0 0 0
17 1 2.51939 1.6796 0.839798 0 0 0
18 1 1.6796 2.51939 0.839798 0 0 0
19 1 3.35919 1.6796 0 0 0 0
20 1 4.19899 2.51939 0 0 0 0
21 1 4.19899 1.6796 0.839798 0 0 0
22 1 3.35919 2.51939 0.839798 0 0 0
23 1 5.03879 1.6796 0 0 0 0
24 1 5.87859 2.51939 0 0 0 0
25 1 5.87859 1.6796 0.839798 0 0 0
26 1 5.03879 2.51939 0.839798 0 0 0
27 1 6.71838 1.6796 0 0 0 0
28 1 6.71838 2.51939 0.839798 0 0 0
29 1 1.6796 3.35919 0 0 0 0
30 1 2.51939 4.19899 0 0 0 0
31 1 2.51939 3.35919 0.839798 0 0 0
32 1 1.6796 4.19899 0.839798 0 0 0
33 1 3.35919 3.35919 0 0 0 0
34 1 4.19899 4.19899 0 0 0 0
35 1 4.19899 3.35919 0.839798 0 0 0
36 1 3.35919 4.19899 0.839798 0 0 0
37 1 5.03879 3.35919 0 0 0 0
38 1 5.87859 4.19899 0 0 0 0
39 1 5.87859 3.35919 0.839798 0 0 0
40 1 5.03879 4.19899 0.839798 0 0 0
41 1 6.71838 3.35919 0 0 0 0
42 1 7.55818 4.19899 0 0 0 0
43 1 7.55818 3.35919 0.839798 0 0 0
44 1 6.71838 4.19899 0.839798 0 0 0
45 1 1.6796 5.03879 0 0 0 0
47 1 2.51939 5.03879 0.839798 0 0 0
49 1 3.35919 5.03879 0 0 0 0
51 1 4.19899 5.03879 0.839798 0 0 0
53 1 5.03879 5.03879 0 0 0 0
55 1 5.87859 5.03879 0.839798 0 0 0
57 1 6.71838 5.03879 0 0 0 0
59 1 7.55818 5.03879 0.839798 0 0 0
46 1 2.51939 5.87859 0 0 0 0
48 1 1.6796 5.87859 0.839798 0 0 0
61 1 2.51939 6.71838 0.839798 0 0 0
50 1 4.19899 5.87859 0 0 0 0
52 1 3.35919 5.87859 0.839798 0 0 0
62 1 4.19899 6.71838 0.839798 0 0 0
54 1 5.87859 5.87859 0 0 0 0
56 1 5.03879 5.87859 0.839798 0 0 0
63 1 5.87859 6.71838 0.839798 0 0 0
58 1 7.55818 5.87859 0 0 0 0
60 1 6.71838 5.87859 0.839798 0 0 0
64 1 7.55818 6.71838 0.839798 0 0 0
65 1 0.839798 0.839798 1.6796 0 0 0
66 1 2.51939 0.839798 1.6796 0 0 0
67 1 1.6796 0.839798 2.51939 0 0 0
68 1 4.19899 0.839798 1.6796 0 0 0
69 1 3.35919 0.839798 2.51939 0 0 0
70 1 5.87859 0.839798 1.6796 0 0 0
71 1 5.03879 0.839798 2.51939 0 0 0
72 1 6.71838 0.839798 2.51939 0 0 0
73 1 0.839798 2.51939 1.6796 0 0 0
74 1 0.839798 1.6796 2.51939 0 0 0
75 1 1.6796 1.6796 1.6796 0 0 0
76 1 2.51939 2.51939 1.6796 0 0 0
77 1 2.51939 1.6796 2.51939 0 0 0
78 1 1.6796 2.51939 2.51939 0 0 0
79 1 3.35919 1.6796 1.6796 0 0 0
80 1 4.19899 2.51939 1.6796 0 0 0
81 1 4.19899 1.6796 2.51939 0 0 0
82 1 3.35919 2.51939 2.51939 0 0 0
83 1 5.03879 1.6796 1.6796 0 0 0
84 1 5.87859 2.51939 1.6796 0 0 0
85 1 5.87859 1.6796 2.51939 0 0 0
86 1 5.03879 2.51939 2.51939 0 0 0
87 1 6.71838 1.6796 1.6796 0 0 0
88 1 6.71838 2.51939 2.51939 0 0 0
89 1 1.6796 3.35919 1.6796 0 0 0
90 1 2.51939 4.19899 1.6796 0 0 0
91 1 2.51939 3.35919 2.51939 0 0 0
92 1 1.6796 4.19899 2.51939 0 0 0
93 1 3.35919 3.35919 1.6796 0 0 0
94 1 4.19899 4.19899 1.6796 0 0 0
95 1 4.19899 3.35919 2.51939 0 0 0
96 1 3.35919 4.19899 2.51939 0 0 0
97 1 5.03879 3.35919 1.6796 0 0 0
98 1 5.87859 4.19899 1.6796 0 0 0
99 1 5.87859 3.35919 2.51939 0 0 0
100 1 5.03879 4.19899 2.51939 0 0 0
101 1 6.71838 3.35919 1.6796 0 0 0
102 1 7.55818 4.19899 1.6796 0 0 0
103 1 7.55818 3.35919 2.51939 0 0 0
104 1 6.71838 4.19899 2.51939 0 0 0
105 1 1.6796 5.03879 1.6796 0 0 0
107 1 2.51939 5.03879 2.51939 0 0 0
108 1 3.35919 5.03879 1.6796 0 0 0
110 1 4.19899 5.03879 2.51939 0 0 0
112 1 5.03879 5.03879 1.6796 0 0 0
114 1 5.87859 5.03879 2.51939 0 0 0
116 1 6.71838 5.03879 1.6796 0 0 0
118 1 7.55818 5.03879 2.51939 0 0 0
106 1 2.51939 5.87859 1.6796 0 0 0
121 1 2.51939 6.71838 2.51939 0 0 0
109 1 4.19899 5.87859 1.6796 0 0 0
111 1 3.35919 5.87859 2.51939 0 0 0
122 1 3.35919 6.71838 1.6796 0 0 0
123 1 4.19899 6.71838 2.51939 0 0 0
113 1 5.87859 5.87859 1.6796 0 0 0
115 1 5.03879 5.87859 2.51939 0 0 0
124 1 5.03879 6.71838 1.6796 0 0 0
125 1 5.87859 6.71838 2.51939 0 0 0
117 1 7.55818 5.87859 1.6796 0 0 0
119 1 6.71838 5.87859 2.51939 0 0 0
126 1 6.71838 6.71838 1.6796 0 0 0
127 1 7.55818 6.71838 2.51939 0 0 0
120 1 8.39798 5.87859 2.51939 0 0 0
128 1 8.39798 6.71838 1.6796 0 0 0
129 1 0.839798 0.839798 3.35919 0 0 0
130 1 2.51939 0.839798 3.35919 0 0 0
131 1 1.6796 0.839798 4.19899 0 0 0
132 1 4.19899 0.839798 3.35919 0 0 0
133 1 3.35919 0.839798 4.19899 0 0 0
134 1 5.87859 0.839798 3.35919 0 0 0
135 1 5.03879 0.839798 4.19899 0 0 0
136 1 6.71838 0.839798 4.19899 0 0 0
137 1 1.6796 1.6796 3.35919 0 0 0
138 1 2.51939 2.51939 3.35919 0 0 0
139 1 2.51939 1.6796 4.19899 0 0 0
140 1 1.6796 2.51939 4.19899 0 0 0
141 1 3.35919 1.6796 3.35919 0 0 0
142 1 4.19899 2.51939 3.35919 0 0 0
143 1 4.19899 1.6796 4.19899 0 0 0
144 1 3.35919 2.51939 4.19899 0 0 0
145 1 5.03879 1.6796 3.35919 0 0 0
146 1 5.87859 2.51939 3.35919 0 0 0
147 1 5.87859 1.6796 4.19899 0 0 0
148 1 5.03879 2.51939 4.19899 0 0 0
149 1 6.71838 1.6796 3.35919 0 0 0
150 1 7.55818 2.51939 3.35919 0 0 0
151 1 7.55818 1.6796 4.19899 0 0 0
152 1 6.71838 2.51939 4.19899 0 0 0
153 1 1.6796 3.35919 3.35919 0 0 0
154 1 2.51939 4.19899 3.35919 0 0 0
155 1 2.51939 3.35919 4.19899 0 0 0
156 1 1.6796 4.19899 4.19899 0 0 0
157 1 3.35919 3.35919 3.35919 0 0 0
158 1 4.19899 4.19899 3.35919 0 0 0
159 1 4.19899 3.35919 4.19899 0 0 0
160 1 3.35919 4.19899 4.19899 0 0 0
161 1 5.03879 3.35919 3.35919 0 0 0
162 1 5.87859 4.19899 3.35919 0 0 0
163 1 5.87859 3.35919 4.19899 0 0 0
164 1 5.03879 4.19899 4.19899 0 0 0
165 1 6.71838 3.35919 3.35919 0 0 0
166 1 7.55818 4.19899 3.35919 0 0 0
167 1 7.55818 3.35919 4.19899 0 0 0
168 1 6.71838 4.19899 4.19899 0 0 0
169 1 1.6796 5.03879 3.35919 0 0 0
171 1 2.51939 5.03879 4.19899 0 0 0
172 1 3.35919 5.03879 3.35919 0 0 0
174 1 4.19899 5.03879 4.19899 0 0 0
176 1 5.03879 5.03879 3.35919 0 0 0
178 1 5.87859 5.03879 4.19899 0 0 0
180 1 6.71838 5.03879 3.35919 0 0 0
182 1 7.55818 5.03879 4.19899 0 0 0
170 1 2.51939 5.87859 3.35919 0 0 0
185 1 2.51939 6.71838 4.19899 0 0 0
173 1 4.19899 5.87859 3.35919 0 0 0
175 1 3.35919 5.87859 4.19899 0 0 0
186 1 3.35919 6.71838 3.35919 0 0 0
187 1 4.19899 6.71838 4.19899 0 0 0
177 1 5.87859 5.87859 3.35919 0 0 0
179 1 5.03879 5.87859 4.19899 0 0 0
188 1 5.03879 6.71838 3.35919 0 0 0
189 1 5.87859 6.71838 4.19899 0 0 0
181 1 7.55818 5.87859 3.35919 0 0 0
183 1 6.71838 5.87859 4.19899 0 0 0
190 1 6.71838 6.71838 3.35919 0 0 0
191 1 7.55818 6.71838 4.19899 0 0 0
184 1 8.39798 5.87859 4.19899 0 0 0
192 1 8.39798 6.71838 3.35919 0 0 0
193 1 0.839798 0.839798 5.03879 0 0 0
194 1 2.51939 0.839798 5.03879 0 0 0
195 1 1.6796 0.839798 5.87859 0 0 0
196 1 4.19899 0.839798 5.03879 0 0 0
197 1 3.35919 0.839798 5.87859 0 0 0
198 1 5.87859 0.839798 5.03879 0 0 0
199 1 5.03879 0.839798 5.87859 0 0 0
200 1 6.71838 0.839798 5.87859 0 0 0
201 1 1.6796 1.6796 5.03879 0 0 0
202 1 2.51939 2.51939 5.03879 0 0 0
203 1 2.51939 1.6796 5.87859 0 0 0
204 1 1.6796 2.51939 5.87859 0 0 0
205 1 3.35919 1.6796 5.03879 0 0 0
206 1 4.19899 2.51939 5.03879 0 0 0
207 1 4.19899 1.6796 5.87859 0 0 0
208 1 3.35919 2.51939 5.87859 0 0 0
209 1 5.03879 1.6796 5.03879 0 0 0
210 1 5.87859 2.51939 5.03879 0 0 0
211 1 5.87859 1.6796 5.87859 0 0 0
212 1 5.03879 2.51939 5.87859 0 0 0
213 1 6.71838 1.6796 5.03879 0 0 0
214 1 7.55818 2.51939 5.03879 0 0 0
215 1 7.55818 1.6796 5.87859 0 0 0
216 1 6.71838 2.51939 5.87859 0 0 0
217 1 1.6796 3.35919 5.03879 0 0 0
218 1 2.51939 4.19899 5.03879 0 0 0
219 1 2.51939 3.35919 5.87859 0 0 0
220 1 3.35919 3.35919 5.03879 0 0 0
221 1 4.19899 4.19899 5.03879 0 0 0
222 1 4.19899 3.35919 5.87859 0 0 0
223 1 3.35919 4.19899 5.87859 0 0 0
224 1 5.03879 3.35919 5.03879 0 0 0
225 1 5.87859 4.19899 5.03879 0 0 0
226 1 5.87859 3.35919 5.87859 0 0 0
227 1 5.03879 4.19899 5.87859 0 0 0
228 1 6.71838 3.35919 5.03879 0 0 0
229 1 7.55818 4.19899 5.03879 0 0 0
230 1 7.55818 3.35919 5.87859 0 0 0
231 1 6.71838 4.19899 5.87859 0 0 0
232 1 8.39798 4.19899 5.87859 0 0 0
234 1 2.51939 5.03879 5.87859 0 0 0
235 1 3.35919 5.03879 5.03879 0 0 0
237 1 4.19899 5.03879 5.87859 0 0 0
239 1 5.03879 5.03879 5.03879 0 0 0
241 1 5.87859 5.03879 5.87859 0 0 0
243 1 6.71838 5.03879 5.03879 0 0 0
245 1 7.55818 5.03879 5.87859 0 0 0
247 1 8.39798 5.03879 5.03879 0 0 0
233 1 2.51939 5.87859 5.03879 0 0 0
249 1 2.51939 6.71838 5.87859 0 0 0
236 1 4.19899 5.87859 5.03879 0 0 0
238 1 3.35919 5.87859 5.87859 0 0 0
250 1 3.35919 6.71838 5.03879 0 0 0
251 1 4.19899 6.71838 5.87859 0 0 0
240 1 5.87859 5.87859 5.03879 0 0 0
242 1 5.03879 5.87859 5.87859 0 0 0
252 1 5.03879 6.71838 5.03879 0 0 0
253 1 5.87859 6.71838 5.87859 0 0 0
244 1 7.55818 5.87859 5.03879 0 0 0
246 1 6.71838 5.87859 5.87859 0 0 0
254 1 6.71838 6.71838 5.03879 0 0 0
255 1 7.55818 6.71838 5.87859 0 0 0
248 1 8.39798 5.87859 5.87859 0 0 0
256 1 8.39798 6.71838 5.03879 0 0 0
ITEM: TIMESTEP
10
ITEM: NUMBER OF ATOMS
256
ITEM: BOX BOUNDS xy xz yz pp pp pp
0.0000000000000000e+00 9.2377790526037913e+00 1.6795961913825073e+00
0.0000000000000000e+00 7.0543040038065303e+00 8.3979809569125363e-01
0.0000000000000000e+00 6.7183847655300291e+00 3.3591923827650150e-01
ITEM: ATOMS id type x y z ix iy iz
1 1 0.0402666 0.0498171 0.110075 0 0 0
2 1 0.772749 0.92289 0.0764187 0 0 0
3 1 3.33597 6.66711 0.138654 0 -1 0
4 1 2.52739 0.918093 0.0293969 0 0 0
5 1 1.67299 0.877908 0.842834 0 0 0
6 1 3.45023 0.0499026 0.181676 0 0 0
7 1 4.13506 0.868586 0.0149082 0 0 0
8 1 3.32254 0.745089 0.749578 0 0 0
9 1 6.69421 6.67136 0.109681 0 -1 0
10 1 5.90349 0.838332 0.156429 0 0 0
11 1 4.9737 0.936265 0.888053 0 0 0
12 1 6.62552 0.814626 0.86011 0 0 0
13 1 0.760434 2.62264 0.139388 0 0 0
14 1 0.802006 1.6333 0.915311 0 0 0
15 1 1.75122 1.66509 0.0423089 0 0 0
16 1 2.52809 2.57252 0.119794 0 0 0
17 1 2.42619 1.58719 0.750687 0 0 0
18 1 1.73377 2.54223 0.899758 0 0 0
19 1 3.28861 1.79223 0.0973849 0 0 0
20 1 4.24651 2.4685 0.111191 0 0 0
21 1 4.1881 1.63729 0.854579 0 0 0
22 1 3.34289 2.42396 0.889981 0 0 0
23 1 5.13253 1.77379 0.0876199 0 0 0
24 1 5.84472 2.5022 0.129244 0 0 0
25 1 5.90622 1.65541 0.757414 0 0 0
26 1 4.95377 2.48096 0.880252 0 0 0
27 1 6.67603 1.77387 0.101273 0 0 0
28 1 6.7694 2.42841 0.787352 0 0 0
29 1 1.71717 3.47336 0.1259 0 0 0
30 1 2.42209 4.26404 0.122042 0 0 0
31 1 2.5918 3.44063 0.758961 0 0 0
32 1 1.60098 4.20569 0.782927 0 0 0
33 1 3.3211 3.47548 0.143438 0 0 0
34 1 4.21175 4.28059 0.0382585 0 0 0
35 1 4.28123 3.39825 0.894212 0 0 0
36 1 3.26645 4.22121 0.775725 0 0 0
37 1 5.04491 3.4647 0.103808 0 0 0
38 1 5.81765 4.31834 0.124808 0 0 0
39 1 5.82043 3.27866 0.868687 0 0 0
40 1 5.02619 4.27495 0.864654 0 0 0
41 1 6.67108 3.48197 0.131348 0 0 0
42 1 7.5409 4.34246 0.0115699 0 0 0
43 1 7.50624 3.27723 0.915711 0 0 0
44 1 6.63187 4.25251 0.791395 0 0 0
45 1 1.63767 5.1111 0.11395 0 0 0
47 1 2.57057 5.09128 0.90501 0 0 0
49 1 3.41195 4.98889 0.0257761 0 0 0
51 1 4.26509 4.95986 0.913727 0 0 0
53 1 5.00238 5.16526 0.0778795 0 0 0
55 1 5.78988 4.96217 0.902413 0 0 0
57 1 7.51245 5.50718 6.70283 0 0 -1
59 1 7.6428 5.00802 0.866886 0 0 0
46 1 2.49295 5.98661 0.114514 0 0 0
48 1 1.7353 5.84351 0.885266 0 0 0
61 1 0.922431 0.0872972 0.812165 0 1 0
50 1 4.15812 5.87814 0.179504 0 0 0
52 1 3.29938 5.84412 0.746039 0 0 0
62 1 4.11013 6.66331 0.81988 0 0 0
54 1 5.94362 5.89466 0.0686895 0 0 0
56 1 5.01359 5.91308 0.860816 0 0 0
63 1 5.89593 6.62765 0.88751 0 0 0
58 1 7.57773 5.91193 0.126561 0 0 0
60 1 6.67521 5.79441 0.822238 0 0 0
64 1 7.6341 6.63225 0.81646 0 0 0
65 1 0.85353 0.835915 1.64393 0 0 0
66 1 2.61682 0.740175 1.75214 0 0 0
67 1 1.7462 0.810378 2.43416 0 0 0
68 1 4.19983 0.932994 1.58368 0 0 0
69 1 3.41712 0.847912 2.47568 0 0 0
70 1 5.86937 0.825218 1.64095 0 0 0
71 1 5.11506 0.897971 2.55282 0 0 0
72 1 6.7154 0.82401 2.47378 0 0 0
73 1 0.834233 2.48988 1.61197 0 0 0
74 1 0.842412 1.77946 2.53605 0 0 0
75 1 1.58805 1.69435 1.68041 0 0 0
76 1 2.49577 2.55874 1.58376 0 0 0
77 1 2.52648 1.6215 2.47905 0 0 0
78 1 1.59114 2.53986 2.60468 0 0 0
79 1 3.3525 1.67299 1.6079 0 0 0
80 1 4.10654 2.48406 1.59665 0 0 0
81 1 4.27174 1.64293 2.50948 0 0 0
82 1 3.26612 2.52719 2.59187 0 0 0
83 1 5.11982 1.715 1.66633 0 0 0
84 1 5.85482 2.60912 1.7261 0 0 0
85 1 5.89538 1.75845 2.42984 0 0 0
86 1 5.10854 2.59381 2.46403 0 0 0
87 1 6.75722 1.69516 1.69238 0 0 0
88 1 6.70313 2.59687 2.54546 0 0 0
89 1 1.71759 3.34577 1.68292 0 0 0
90 1 2.5926 4.209 1.62276 0 0 0
91 1 2.45067 3.3294 2.44902 0 0 0
92 1 1.76881 4.16897 2.53128 0 0 0
93 1 3.31542 3.30528 1.62948 0 0 0
94 1 4.20617 4.26701 1.73549 0 0 0
95 1 4.24537 3.39979 2.57466 0 0 0
96 1 3.34463 4.24684 2.57557 0 0 0
97 1 5.01119 3.32959 1.70056 0 0 0
98 1 5.95629 4.1065 1.67743 0 0 0
99 1 5.81287 3.38418 2.5615 0 0 0
100 1 5.05491 4.17496 2.43345 0 0 0
101 1 6.80807 3.44008 1.67191 0 0 0
102 1 7.49711 4.20692 1.68851 0 0 0
103 1 7.62274 3.29142 2.50909 0 0 0
104 1 6.76304 4.19984 2.56632 0 0 0
105 1 1.63082 5.09605 1.69935 0 0 0
107 1 2.5354 5.04186 2.52445 0 0 0
108 1 3.3647 5.09935 1.64702 0 0 0
110 1 4.12735 5.13091 2.50091 0 0 0
112 1 5.05655 5.04865 1.70738 0 0 0
114 1 5.80076 4.93781 2.56079 0 0 0
116 1 6.74699 5.11535 1.58376 0 0 0
118 1 7.60662 5.09664 2.51523 0 0 0
106 1 2.58897 5.97971 1.62684 0 0 0
121 1 2.57242 6.81619 2.6101 0 0 0
109 1 4.24785 5.85511 1.67337 0 0 0
111 1 3.38128 5.96966 2.48532 0 0 0
122 1 3.40016 6.74305 1.61408 0 0 0
123 1 4.27691 6.80837 2.54321 0 0 0
113 1 5.90933 5.84767 1.7168 0 0 0
115 1 5.13419 5.7842 2.55316 0 0 0
124 1 4.95387 6.66362 1.61726 0 0 0
125 1 5.84209 6.74152 2.47765 0 0 0
117 1 7.46148 5.96037 1.5923 0 0 0
119 1 6.79095 5.86351 2.59768 0 0 0
126 1 6.72445 6.62375 1.75586 0 0 0
127 1 7.61678 6.72059 2.61141 0 0 0
120 1 8.46089 5.82873 2.48378 0 0 0
128 1 8.44884 6.76609 1.66408 0 0 0
129 1 0.87804 0.803831 3.33831 0 0 0
130 1 2.56084 0.911331 3.34978 0 0 0
131 1 1.58323 0.816183 4.15922 0 0 0
132 1 4.20923 0.800444 3.34572 0 0 0
133 1 3.28146 0.758753 4.19878 0 0 0
134 1 5.93971 0.868869 3.43133 0 0 0
135 1 5.09665 0.816239 4.12644 0 0 0
136 1 6.7348 0.791905 4.27772 0 0 0
137 1 1.72919 1.7182 3.44458 0 0 0
138 1 2.4501 2.42473 3.31235 0 0 0
139 1 2.61128 1.60119 4.2024 0 0 0
140 1 1.74638 2.4501 4.13481 0 0 0
141 1 3.44995 1.59727 3.31591 0 0 0
142 1 4.14496 2.56642 3.30787 0 0 0
143 1 4.10746 1.70171 4.1196 0 0 0
144 1 3.32483 2.57847 4.15246 0 0 0
145 1 5.10802 1.58889 3.43467 0 0 0
146 1 5.91348 2.51461 3.33004 0 0 0
147 1 5.8274 1.62424 4.18389 0 0 0
148 1 5.03605 2.59316 4.12301 0 0 0
149 1 6.68662 1.62924 3.31827 0 0 0
150 1 7.46081 2.53025 3.29644 0 0 0
151 1 7.57413 1.63689 4.2361 0 0 0
152 1 6.67519 2.60139 4.17459 0 0 0
153 1 1.69241 3.37239 3.27792 0 0 0
154 1 2.41964 4.20176 3.30949 0 0 0
155 1 2.45638 3.25666 4.28899 0 0 0
156 1 1.72718 4.21985 4.26344 0 0 0
157 1 3.28218 3.27071 3.34205 0 0 0
158 1 4.2593 4.22922 3.31264 0 0 0
159 1 4.15371 3.45651 4.24987 0 0 0
160 1 3.32707 4.23662 4.29552 0 0 0
161 1 5.12751 3.35351 3.41673 0 0 0
162 1 5.93311 4.12272 3.43705 0 0 0
163 1 5.92152 3.3177 4.1918 0 0 0
164 1 5.06775 4.21629 4.28535 0 0 0
165 1 6.70622 3.3706 3.29897 0 0 0
166 1 7.54184 4.28488 3.39631 0 0 0
167 1 7.62943 3.33947 4.11232 0 0 0
168 1 6.6448 4.14094 4.14731 0 0 0
169 1 1.66356 5.00054 3.38641 0 0 0
171 1 2.43196 4.9516 4.23379 0 0 0
172 1 3.30024 5.03717 3.32574 0 0 0
174 1 4.2647 5.09516 4.14252 0 0 0
176 1 4.96615 5.08276 3.32428 0 0 0
178 1 5.81713 4.96222 4.26053 0 0 0
180 1 6.69505 5.02544 3.29539 0 0 0
182 1 7.5956 4.96307 4.24431 0 0 0
170 1 2.57438 5.82256 3.34625 0 0 0
185 1 2.59747 6.70235 4.14782 0 0 0
173 1 4.26192 5.78149 3.29023 0 0 0
175 1 3.39746 5.92909 4.27046 0 0 0
186 1 3.30049 6.76574 3.44049 0 0 0
187 1 4.1991 6.68151 4.16034 0 0 0
177 1 5.95504 5.80598 3.38599 0 0 0
179 1 5.13531 5.87214 4.16848 0 0 0
188 1 5.00577 6.74254 3.43038 0 0 0
189 1 5.86641 6.75786 4.26288 0 0 0
181 1 7.47992 5.82881 3.39266 0 0 0
183 1 6.68511 5.78002 4.1323 0 0 0
190 1 6.73291 6.68049 3.4186 0 0 0
191 1 7.50432 6.68048 4.16928 0 0 0
184 1 8.49861 5.79887 4.23359 0 0 0
192 1 8.36692 6.76364 3.32419 0 0 0
193 1 7.50825 0.925109 5.11086 -1 0 0
194 1 2.58552 0.887001 5.07747 0 0 0
195 1 1.71528 0.76008 5.84496 0 0 0
196 1 4.2754 0.909808 5.01502 0 0 0
197 1 3.38675 0.715923 5.75633 0 0 0
198 1 5.88 0.870841 5.04517 0 0 0
199 1 5.1009 0.884197 5.68908 0 0 0
200 1 6.681 0.811067 5.83617 0 0 0
201 1 1.71243 1.67099 5.02246 0 0 0
202 1 2.5816 2.48458 5.02397 0 0 0
203 1 2.55929 1.55223 5.79468 0 0 0
204 1 1.76656 2.56173 5.85691 0 0 0
205 1 3.43035 1.75203 5.12537 0 0 0
206 1 4.18859 2.54983 5.06347 0 0 0
207 1 4.2074 1.56959 5.80807 0 0 0
208 1 3.29436 2.51599 5.84793 0 0 0
209 1 5.03129 1.71218 4.99258 0 0 0
210 1 5.96952 2.55752 5.12832 0 0 0
211 1 5.85559 1.73445 5.76953 0 0 0
212 1 5.01186 2.49727 5.79557 0 0 0
213 1 6.66947 1.72258 4.95385 0 0 0
214 1 7.56884 2.4948 4.95117 0 0 0
215 1 7.62997 1.55837 5.81206 0 0 0
216 1 6.70224 2.56876 5.79113 0 0 0
217 1 1.67701 3.26748 5.08974 0 0 0
218 1 2.54116 4.15582 5.13729 0 0 0
219 1 2.47273 3.34043 5.7537 0 0 0
220 1 3.39215 3.3019 4.96887 0 0 0
221 1 4.17081 4.1438 5.09631 0 0 0
222 1 4.1998 3.24691 5.85375 0 0 0
223 1 3.41976 4.08966 5.7764 0 0 0
224 1 4.97628 3.37369 5.08534 0 0 0
225 1 5.79119 4.20668 4.98768 0 0 0
226 1 5.7962 3.29162 5.83834 0 0 0
227 1 5.00038 4.12712 5.80097 0 0 0
228 1 6.69479 3.36546 5.00646 0 0 0
229 1 7.57324 4.26403 5.00983 0 0 0
230 1 7.48482 3.33379 5.78262 0 0 0
231 1 6.81023 4.23614 5.75518 0 0 0
232 1 8.33092 4.09932 5.81055 0 0 0
234 1 2.52941 4.99053 5.83169 0 0 0
235 1 3.25695 5.08549 4.99333 0 0 0
237 1 4.20857 4.92783 5.75025 0 0 0
239 1 5.0843 5.03109 4.97479 0 0 0
241 1 5.83686 4.94991 5.75478 0 0 0
243 1 6.76635 5.06405 5.09848 0 0 0
245 1 7.58335 4.98763 5.70607 0 0 0
247 1 8.43375 5.11499 5.12196 0 0 0
233 1 2.42742 5.92623 5.05964 0 0 0
249 1 2.47431 6.68631 5.82971 0 0 0
236 1 4.28349 5.82977 4.94895 0 0 0
238 1 3.32756 5.93113 5.75474 0 0 0
250 1 3.35871 6.79617 5.08928 0 0 0
251 1 4.16613 6.58486 5.84048 0 0 0
240 1 5.88699 5.78483 4.93985 0 0 0
242 1 5.13217 5.88621 5.83181 0 0 0
252 1 4.95696 6.77963 5.10349 0 0 0
253 1 5.94034 6.76574 5.86564 0 0 0
244 1 7.46952 5.8966 5.07411 0 0 0
246 1 6.78712 5.80814 5.79546 0 0 0
254 1 6.74068 6.617 4.97708 0 0 0
255 1 7.47254 6.76305 5.7849 0 0 0
248 1 8.30601 5.8206 5.74516 0 0 0
256 1 8.30421 6.78535 5.03595 0 0 0
ITEM: TIMESTEP
20
ITEM: NUMBER OF ATOMS
256
ITEM: BOX BOUNDS xy xz yz pp pp pp
0.0000000000000000e+00 9.2377790526037913e+00 1.6795961913825073e+00
0.0000000000000000e+00 7.0543040038065303e+00 8.3979809569125363e-01
0.0000000000000000e+00 6.7183847655300291e+00 3.3591923827650150e-01
ITEM: ATOMS id type x y z ix iy iz
1 1 0.0854301 0.111851 0.240424 0 0 0
2 1 0.705254 1.02481 0.192374 0 0 0
3 1 3.33633 6.66507 0.215807 0 -1 0
4 1 2.5453 0.945014 0.0159007 0 0 0
5 1 1.65426 0.898997 0.851391 0 0 0
6 1 5.2279 6.67015 0.250881 0 -1 0
7 1 4.08028 0.918891 0.0624027 0 0 0
8 1 3.25431 0.818232 0.807403 0 0 0
9 1 6.68841 6.66221 0.282059 0 -1 0
10 1 5.87973 0.809517 0.270746 0 0 0
11 1 4.95329 1.0092 0.90947 0 0 0
12 1 6.60016 0.807255 0.928268 0 0 0
13 1 0.739386 2.72021 0.21734 0 0 0
14 1 0.769629 1.59726 0.971094 0 0 0
15 1 1.74706 1.70157 0.0745307 0 0 0
16 1 2.53351 2.64489 0.285582 0 0 0
17 1 2.41267 1.56214 0.798521 0 0 0
18 1 1.74238 2.56046 0.925472 0 0 0
19 1 3.22804 1.86509 0.157116 0 0 0
20 1 4.26504 2.44741 0.240408 0 0 0
21 1 4.15947 1.64254 0.830398 0 0 0
22 1 3.31164 2.3928 0.936554 0 0 0
23 1 5.16607 1.83647 0.168203 0 0 0
24 1 5.83899 2.54097 0.273504 0 0 0
25 1 5.92676 1.65277 0.782815 0 0 0
26 1 4.90499 2.45876 0.954647 0 0 0
27 1 6.65669 1.78654 0.0979581 0 0 0
28 1 6.76284 2.41396 0.887341 0 0 0
29 1 1.73893 3.51303 0.203898 0 0 0
30 1 2.34251 4.36727 0.22139 0 0 0
31 1 2.56228 3.48931 0.788196 0 0 0
32 1 1.51904 4.24391 0.806147 0 0 0
33 1 3.38332 3.53596 0.173532 0 0 0
34 1 4.23983 4.36814 0.124897 0 0 0
35 1 4.34016 3.43937 0.945417 0 0 0
36 1 3.21696 4.32001 0.781235 0 0 0
37 1 5.05243 3.5742 0.22183 0 0 0
38 1 5.75066 4.41061 0.193845 0 0 0
39 1 5.76705 3.22893 0.91314 0 0 0
40 1 5.01176 4.29446 0.904876 0 0 0
41 1 6.62785 3.56276 0.240036 0 0 0
42 1 7.51362 4.49976 0.0523777 0 0 0
43 1 7.48499 3.25953 1.00107 0 0 0
44 1 6.57426 4.34837 0.795666 0 0 0
45 1 1.62606 5.19008 0.220883 0 0 0
47 1 2.59008 5.12791 0.963446 0 0 0
49 1 3.45282 4.98489 0.0986497 0 0 0
51 1 4.28872 4.93181 0.982665 0 0 0
53 1 4.97384 5.28052 0.156438 0 0 0
55 1 5.73678 4.96265 1.00627 0 0 0
57 1 7.49474 5.60154 6.68113 0 0 -1
59 1 7.67341 5.00882 0.924408 0 0 0
46 1 2.44298 6.08414 0.211577 0 0 0
48 1 1.78222 5.83351 0.9515 0 0 0
61 1 0.94704 0.179293 0.838042 0 1 0
50 1 4.14255 5.8451 0.326379 0 0 0
52 1 3.25058 5.79199 0.720731 0 0 0
62 1 4.07086 6.65869 0.85032 0 0 0
54 1 5.94692 5.94271 0.160836 0 0 0
56 1 5.00225 5.92841 0.890747 0 0 0
63 1 5.92553 6.5508 0.968146 0 0 0
58 1 7.58874 5.89762 0.213093 0 0 0
60 1 6.64617 5.75472 0.816632 0 0 0
64 1 7.70395 6.62065 0.837745 0 0 0
65 1 0.866214 0.825517 1.62561 0 0 0
66 1 2.68951 0.693197 1.77458 0 0 0
67 1 1.80151 0.785913 2.35835 0 0 0
68 1 4.17904 0.980206 1.55154 0 0 0
69 1 3.48051 0.862112 2.43722 0 0 0
70 1 5.8527 0.81049 1.61195 0 0 0
71 1 5.19409 0.945915 2.58233 0 0 0
72 1 6.71362 0.81695 2.43172 0 0 0
73 1 0.828294 2.45882 1.57424 0 0 0
74 1 0.830295 1.84886 2.54082 0 0 0
75 1 1.51819 1.70556 1.68673 0 0 0
76 1 2.50213 2.58665 1.52484 0 0 0
77 1 2.53594 1.57178 2.43711 0 0 0
78 1 1.55186 2.52684 2.67372 0 0 0
79 1 3.33269 1.63598 1.56447 0 0 0
80 1 4.04683 2.45639 1.54835 0 0 0
81 1 4.34207 1.61235 2.49795 0 0 0
82 1 3.1828 2.51503 2.6306 0 0 0
83 1 5.18885 1.74942 1.65186 0 0 0
84 1 5.86047 2.6913 1.7534 0 0 0
85 1 5.9217 1.82745 2.35945 0 0 0
86 1 5.14278 2.63747 2.44412 0 0 0
87 1 6.78397 1.70696 1.70998 0 0 0
88 1 6.67847 2.66286 2.53959 0 0 0
89 1 1.73253 3.34177 1.66949 0 0 0
90 1 2.65099 4.21771 1.58457 0 0 0
91 1 2.41001 3.29205 2.39536 0 0 0
92 1 1.81269 4.15547 2.49338 0 0 0
93 1 3.2791 3.26143 1.58244 0 0 0
94 1 4.2044 4.32136 1.79606 0 0 0
95 1 4.28799 3.43662 2.62019 0 0 0
96 1 3.33238 4.28116 2.61914 0 0 0
97 1 4.98503 3.31597 1.71072 0 0 0
98 1 6.01478 4.02671 1.67824 0 0 0
99 1 5.77584 3.41951 2.5985 0 0 0
100 1 5.06247 4.14912 2.3575 0 0 0
101 1 6.85443 3.48098 1.68931 0 0 0
102 1 7.46847 4.24563 1.69632 0 0 0
103 1 7.64958 3.2665 2.48295 0 0 0
104 1 6.80312 4.19835 2.60122 0 0 0
105 1 1.59503 5.1364 1.71248 0 0 0
107 1 2.54864 5.04273 2.518 0 0 0
108 1 3.37774 5.15769 1.62327 0 0 0
110 1 4.05798 5.18868 2.46182 0 0 0
112 1 5.06751 5.05975 1.7412 0 0 0
114 1 5.75162 4.83688 2.6035 0 0 0
116 1 6.77734 5.14576 1.53261 0 0 0
118 1 7.64629 5.1444 2.51528 0 0 0
106 1 2.6523 6.07588 1.58047 0 0 0
121 1 0.938311 0.149468 2.64897 0 1 0
109 1 4.27891 5.82756 1.66566 0 0 0
111 1 3.40114 6.06167 2.45357 0 0 0
122 1 3.43296 6.769 1.56626 0 0 0
123 1 4.34956 6.859 2.60014 0 0 0
113 1 5.93343 5.81353 1.75292 0 0 0
115 1 5.22011 5.72355 2.57192 0 0 0
124 1 4.90521 6.61309 1.56628 0 0 0
125 1 5.80894 6.75783 2.43829 0 0 0
117 1 7.41746 5.98387 1.52407 0 0 0
119 1 6.84176 5.85771 2.64599 0 0 0
126 1 6.69214 6.57562 1.83749 0 0 0
127 1 7.64189 6.71807 2.67341 0 0 0
120 1 1.80557 5.80073 2.46042 1 0 0
128 1 8.49612 6.80082 1.64838 0 0 0
129 1 0.890933 0.825521 3.34537 0 0 0
130 1 2.59411 0.969718 3.33424 0 0 0
131 1 1.51753 0.818118 4.15142 0 0 0
132 1 4.22642 0.756041 3.33492 0 0 0
133 1 3.22854 0.69111 4.21237 0 0 0
134 1 5.99777 0.870054 3.48514 0 0 0
135 1 5.13465 0.766083 4.09362 0 0 0
136 1 6.75374 0.761804 4.32909 0 0 0
137 1 1.73913 1.67542 3.48972 0 0 0
138 1 2.42075 2.36397 3.26322 0 0 0
139 1 2.69251 1.54993 4.21088 0 0 0
140 1 1.79559 2.41906 4.12368 0 0 0
141 1 3.51202 1.52589 3.25286 0 0 0
142 1 4.10024 2.60384 3.2641 0 0 0
143 1 4.03859 1.7261 4.06973 0 0 0
144 1 3.29668 2.60934 4.11349 0 0 0
145 1 5.14539 1.5362 3.46284 0 0 0
146 1 5.94238 2.50757 3.30414 0 0 0
147 1 5.80895 1.59438 4.20133 0 0 0
148 1 5.02686 2.63673 4.07474 0 0 0
149 1 6.66861 1.59463 3.27737 0 0 0
150 1 7.37289 2.54303 3.27201 0 0 0
151 1 7.58276 1.60089 4.26281 0 0 0
152 1 6.66255 2.65262 4.14832 0 0 0
153 1 1.70454 3.38317 3.22296 0 0 0
154 1 2.36754 4.20571 3.30395 0 0 0
155 1 2.40001 3.18475 4.36359 0 0 0
156 1 1.73787 4.19417 4.32919 0 0 0
157 1 3.19859 3.22199 3.32818 0 0 0
158 1 4.31455 4.26033 3.27264 0 0 0
159 1 4.12821 3.54182 4.27063 0 0 0
160 1 3.29543 4.26738 4.38331 0 0 0
161 1 5.19847 3.37163 3.45074 0 0 0
162 1 5.93604 4.06835 3.46368 0 0 0
163 1 5.93156 3.29244 4.19499 0 0 0
164 1 5.03612 4.20414 4.31555 0 0 0
165 1 6.70185 3.38254 3.25429 0 0 0
166 1 7.52497 4.35121 3.42442 0 0 0
167 1 7.69625 3.32171 4.03106 0 0 0
168 1 6.62791 4.09595 4.14463 0 0 0
169 1 1.6497 4.97536 3.40987 0 0 0
171 1 2.39589 4.89355 4.26297 0 0 0
172 1 3.26242 5.03002 3.30873 0 0 0
174 1 4.31778 5.13471 4.09765 0 0 0
176 1 4.96089 5.06158 3.30115 0 0 0
178 1 5.8046 4.90265 4.25939 0 0 0
180 1 6.67619 4.99544 3.24307 0 0 0
182 1 7.63013 4.931 4.27122 0 0 0
170 1 2.61409 5.78643 3.33781 0 0 0
185 1 2.60874 6.6697 4.14736 0 0 0
173 1 4.27404 5.77195 3.24349 0 0 0
175 1 3.42753 5.97315 4.33578 0 0 0
186 1 3.31095 6.78659 3.45949 0 0 0
187 1 4.19139 6.64551 4.13074 0 0 0
177 1 5.99587 5.74521 3.38996 0 0 0
179 1 5.21482 5.86782 4.12958 0 0 0
188 1 4.98688 6.75148 3.47368 0 0 0
189 1 5.85468 6.79414 4.32111 0 0 0
181 1 7.43724 5.77775 3.43931 0 0 0
183 1 6.66896 5.68243 4.10482 0 0 0
190 1 6.73291 6.64368 3.46016 0 0 0
191 1 7.47247 6.64174 4.15046 0 0 0
184 1 8.56944 5.73664 4.24613 0 0 0
192 1 8.37106 6.80395 3.32019 0 0 0
193 1 7.44641 0.914831 5.07856 -1 0 0
194 1 2.62959 0.858082 5.01659 0 0 0
195 1 1.75711 0.698137 5.8118 0 0 0
196 1 4.32872 0.947943 4.94311 0 0 0
197 1 3.4451 0.705612 5.73839 0 0 0
198 1 5.92183 0.907157 4.99733 0 0 0
199 1 5.12324 0.907012 5.52143 0 0 0
200 1 6.64109 0.778558 5.77355 0 0 0
201 1 1.74772 1.66175 5.00143 0 0 0
202 1 2.62886 2.43354 5.0049 0 0 0
203 1 2.593 1.4869 5.74739 0 0 0
204 1 1.84277 2.5421 5.81489 0 0 0
205 1 3.48578 1.79595 5.16745 0 0 0
206 1 4.17978 2.55874 5.05465 0 0 0
207 1 4.23041 1.4751 5.76962 0 0 0
208 1 3.23342 2.50596 5.78587 0 0 0
209 1 5.0247 1.75659 4.92866 0 0 0
210 1 5.98686 2.58746 5.11012 0 0 0
211 1 5.83315 1.75713 5.64852 0 0 0
212 1 4.98949 2.44971 5.67428 0 0 0
213 1 6.62926 1.76012 4.87179 0 0 0
214 1 7.5766 2.47304 4.86814 0 0 0
215 1 7.7195 1.5207 5.83002 0 0 0
216 1 6.74644 2.58795 5.7225 0 0 0
217 1 1.64495 3.19049 5.08676 0 0 0
218 1 2.55487 4.13942 5.1858 0 0 0
219 1 2.46913 3.3007 5.65956 0 0 0
220 1 3.40157 3.25069 4.9229 0 0 0
221 1 4.1717 4.05855 5.0765 0 0 0
222 1 4.19032 3.14949 5.83888 0 0 0
223 1 3.44252 3.97249 5.70788 0 0 0
224 1 4.92289 3.35192 5.08215 0 0 0
225 1 5.75978 4.16686 4.97668 0 0 0
226 1 5.71428 3.24009 5.79538 0 0 0
227 1 4.97163 4.06456 5.71098 0 0 0
228 1 6.6755 3.38491 4.96792 0 0 0
229 1 7.59615 4.2457 4.94311 0 0 0
230 1 7.42845 3.30574 5.67535 0 0 0
231 1 6.87425 4.24171 5.64447 0 0 0
232 1 8.26724 3.98881 5.70656 0 0 0
234 1 2.54288 4.93777 5.77329 0 0 0
235 1 3.16389 5.13192 4.95301 0 0 0
237 1 4.21822 4.85007 5.60059 0 0 0
239 1 5.08004 5.03867 4.94299 0 0 0
241 1 5.80623 4.86969 5.64287 0 0 0
243 1 6.76788 5.06102 5.07142 0 0 0
245 1 7.62827 4.96846 5.6002 0 0 0
247 1 8.49515 5.08155 5.09877 0 0 0
233 1 2.36447 5.97205 5.07271 0 0 0
249 1 2.42576 6.65366 5.75103 0 0 0
236 1 4.36572 5.79125 4.87465 0 0 0
238 1 3.28385 5.95411 5.61541 0 0 0
250 1 3.35234 6.83635 5.07023 0 0 0
251 1 4.14768 6.44991 5.77738 0 0 0
240 1 5.91157 5.71294 4.86601 0 0 0
242 1 5.22501 5.8807 5.75481 0 0 0
252 1 4.86948 6.70775 5.03913 0 0 0
253 1 6.00958 6.79356 5.80899 0 0 0
244 1 7.45856 5.90029 5.03532 0 0 0
246 1 6.80265 5.7513 5.75965 0 0 0
254 1 6.72302 6.54735 4.9069 0 0 0
255 1 7.39307 6.77519 5.64425 0 0 0
248 1 8.20224 5.85938 5.69974 0 0 0
256 1 8.22094 6.81258 5.03684 0 0 0
ITEM: TIMESTEP
30
ITEM: NUMBER OF ATOMS
256
ITEM: BOX BOUNDS xy xz yz pp pp pp
0.0000000000000000e+00 9.2377790526037913e+00 1.6795961913825073e+00
0.0000000000000000e+00 7.0543040038065303e+00 8.3979809569125363e-01
0.0000000000000000e+00 6.7183847655300291e+00 3.3591923827650150e-01
ITEM: ATOMS id type x y z ix iy iz
1 1 0.118011 0.179537 0.292068 0 0 0
2 1 0.647846 1.06866 0.222997 0 0 0
3 1 3.35439 6.69466 0.156404 0 -1 0
4 1 3.40679 1.26005 6.66306 0 0 -1
5 1 1.64212 0.921363 0.861514 0 0 0
6 1 5.2547 6.60609 0.228026 0 -1 0
7 1 4.02933 0.960485 0.0927374 0 0 0
8 1 3.18823 0.93073 0.903072 0 0 0
9 1 6.72371 6.6939 0.428767 0 -1 0
10 1 5.79005 0.735339 0.282063 0 0 0
11 1 4.99424 1.04682 0.895555 0 0 0
12 1 6.67464 0.866076 1.05169 0 0 0
13 1 0.763022 2.76161 0.159558 0 0 0
14 1 0.748427 1.62176 1.02046 0 0 0
15 1 1.67635 1.76194 0.0437672 0 0 0
16 1 2.52949 2.68003 0.37716 0 0 0
17 1 2.4712 1.61248 0.972793 0 0 0
18 1 1.65127 2.56385 0.905538 0 0 0
19 1 3.18077 1.84655 0.101875 0 0 0
20 1 4.2154 2.4861 0.264521 0 0 0
21 1 4.0973 1.68027 0.791052 0 0 0
22 1 3.27295 2.45404 0.955885 0 0 0
23 1 5.11294 1.83189 0.185419 0 0 0
24 1 5.88922 2.573 0.318825 0 0 0
25 1 5.95598 1.67202 0.937752 0 0 0
26 1 4.93622 2.48202 1.08059 0 0 0
27 1 6.65614 1.7571 0.00564237 0 0 0
28 1 6.69123 2.45407 1.07062 0 0 0
29 1 1.72825 3.45535 0.197747 0 0 0
30 1 2.29473 4.48863 0.269749 0 0 0
31 1 2.48969 3.55039 0.919382 0 0 0
32 1 1.45935 4.26227 0.9202 0 0 0
33 1 3.51008 3.54138 0.119515 0 0 0
34 1 4.30164 4.40519 0.185279 0 0 0
35 1 4.32641 3.47602 0.982171 0 0 0
36 1 3.2443 4.42683 0.842729 0 0 0
37 1 5.06742 3.6288 0.255166 0 0 0
38 1 5.68593 4.4721 0.159436 0 0 0
39 1 5.71248 3.30458 1.00582 0 0 0
40 1 5.01064 4.26425 1.01412 0 0 0
41 1 6.59072 3.5606 0.294433 0 0 0
42 1 7.46785 4.63643 0.0560857 0 0 0
43 1 7.54127 3.34917 1.07081 0 0 0