ITEM: TIMESTEP
0
ITEM: NUMBER OF ATOMS
256
ITEM: BOX BOUNDS pp pp pp
0.0000000000000000e+00 6.7183847655300291e+00
0.0000000000000000e+00 6.7183847655300291e+00
0.0000000000000000e+00 6.7183847655300291e+00
ITEM: ATOMS id type x y z
1 1 0 0 0
2 1 0.839798 0.839798 0
3 1 0.839798 0 0.839798
4 1 0 0.839798 0.839798
5 1 1.6796 0 0
6 1 2.51939 0.839798 0
7 1 2.51939 0 0.839798
8 1 1.6796 0.839798 0.839798
9 1 3.35919 0 0
10 1 4.19899 0.839798 0
11 1 4.19899 0 0.839798
12 1 3.35919 0.839798 0.839798
13 1 5.03879 0 0
14 1 5.87859 0.839798 0
15 1 5.87859 0 0.839798
16 1 5.03879 0.839798 0.839798
17 1 0 1.6796 0
18 1 0.839798 2.51939 0
19 1 0.839798 1.6796 0.839798
20 1 0 2.51939 0.839798
21 1 1.6796 1.6796 0
22 1 2.51939 2.51939 0
23 1 2.51939 1.6796 0.839798
24 1 1.6796 2.51939 0.839798
25 1 3.35919 1.6796 0
26 1 4.19899 2.51939 0
27 1 4.19899 1.6796 0.839798
28 1 3.35919 2.51939 0.839798
29 1 5.03879 1.6796 0
30 1 5.87859 2.51939 0
31 1 5.87859 1.6796 0.839798
32 1 5.03879 2.51939 0.839798
33 1 0 3.35919 0
34 1 0.839798 4.19899 0
35 1 0.839798 3.35919 0.839798
36 1 0 4.19899 0.839798
37 1 1.6796 3.35919 0
38 1 2.51939 4.19899 0
39 1 2.51939 3.35919 0.839798
40 1 1.6796 4.19899 0.839798
41 1 3.35919 3.35919 0
42 1 4.19899 4.19899 0
43 1 4.19899 3.35919 0.839798
44 1 3.35919 4.19899 0.839798
45 1 5.03879 3.35919 0
46 1 5.87859 4.19899 0
47 1 5.87859 3.35919 0.839798
48 1 5.03879 4.19899 0.839798
49 1 0 5.03879 0
50 1 0.839798 5.87859 0
51 1 0.839798 5.03879 0.839798
52 1 0 5.87859 0.839798
53 1 1.6796 5.03879 0
54 1 2.51939 5.87859 0
55 1 2.51939 5.03879 0.839798
56 1 1.6796 5.87859 0.839798
57 1 3.35919 5.03879 0
58 1 4.19899 5.87859 0
59 1 4.19899 5.03879 0.839798
60 1 3.35919 5.87859 0.839798
61 1 5.03879 5.03879 0
62 1 5.87859 5.87859 0
63 1 5.87859 5.03879 0.839798
64 1 5.03879 5.87859 0.839798
65 1 0 0 1.6796
66 1 0.839798 0.839798 1.6796
67 1 0.839798 0 2.51939
68 1 0 0.839798 2.51939
69 1 1.6796 0 1.6796
70 1 2.51939 0.839798 1.6796
71 1 2.51939 0 2.51939
72 1 1.6796 0.839798 2.51939
73 1 3.35919 0 1.6796
74 1 4.19899 0.839798 1.6796
75 1 4.19899 0 2.51939
76 1 3.35919 0.839798 2.51939
77 1 5.03879 0 1.6796
78 1 5.87859 0.839798 1.6796
79 1 5.87859 0 2.51939
80 1 5.03879 0.839798 2.51939
81 1 0 1.6796 1.6796
82 1 0.839798 2.51939 1.6796
83 1 0.839798 1.6796 2.51939
84 1 0 2.51939 2.51939
85 1 1.6796 1.6796 1.6796
86 1 2.51939 2.51939 1.6796
87 1 2.51939 1.6796 2.51939
88 1 1.6796 2.51939 2.51939
89 1 3.35919 1.6796 1.6796
90 1 4.19899 2.51939 1.6796
91 1 4.19899 1.6796 2.51939
92 1 3.35919 2.51939 2.51939
93 1 5.03879 1.6796 1.6796
94 1 5.87859 2.51939 1.6796
95 1 5.87859 1.6796 2.51939
96 1 5.03879 2.51939 2.51939
97 1 0 3.35919 1.6796
98 1 0.839798 4.19899 1.6796
99 1 0.839798 3.35919 2.51939
100 1 0 4.19899 2.51939
101 1 1.6796 3.35919 1.6796
102 1 2.51939 4.19899 1.6796
103 1 2.51939 3.35919 2.51939
104 1 1.6796 4.19899 2.51939
105 1 3.35919 3.35919 1.6796
106 1 4.19899 4.19899 1.6796
107 1 4.19899 3.35919 2.51939
108 1 3.35919 4.19899 2.51939
109 1 5.03879 3.35919 1.6796
110 1 5.87859 4.19899 1.6796
111 1 5.87859 3.35919 2.51939
112 1 5.03879 4.19899 2.51939
113 1 0 5.03879 1.6796
114 1 0.839798 5.87859 1.6796
115 1 0.839798 5.03879 2.51939
116 1 0 5.87859 2.51939
117 1 1.6796 5.03879 1.6796
118 1 2.51939 5.87859 1.6796
119 1 2.51939 5.03879 2.51939
120 1 1.6796 5.87859 2.51939
121 1 3.35919 5.03879 1.6796
122 1 4.19899 5.87859 1.6796
123 1 4.19899 5.03879 2.51939
124 1 3.35919 5.87859 2.51939
125 1 5.03879 5.03879 1.6796
126 1 5.87859 5.87859 1.6796
127 1 5.87859 5.03879 2.51939
128 1 5.03879 5.87859 2.51939
129 1 0 0 3.35919
130 1 0.839798 0.839798 3.35919
131 1 0.839798 0 4.19899
132 1 0 0.839798 4.19899
133 1 1.6796 0 3.35919
134 1 2.51939 0.839798 3.35919
135 1 2.51939 0 4.19899
136 1 1.6796 0.839798 4.19899
137 1 3.35919 0 3.35919
138 1 4.19899 0.839798 3.35919
139 1 4.19899 0 4.19899
140 1 3.35919 0.839798 4.19899
141 1 5.03879 0 3.35919
142 1 5.87859 0.839798 3.35919
143 1 5.87859 0 4.19899
144 1 5.03879 0.839798 4.19899
145 1 0 1.6796 3.35919
146 1 0.839798 2.51939 3.35919
147 1 0.839798 1.6796 4.19899
148 1 0 2.51939 4.19899
149 1 1.6796 1.6796 3.35919
150 1 2.51939 2.51939 3.35919
151 1 2.51939 1.6796 4.19899
152 1 1.6796 2.51939 4.19899
153 1 3.35919 1.6796 3.35919
154 1 4.19899 2.51939 3.35919
155 1 4.19899 1.6796 4.19899
156 1 3.35919 2.51939 4.19899
157 1 5.03879 1.6796 3.35919
158 1 5.87859 2.51939 3.35919
159 1 5.87859 1.6796 4.19899
160 1 5.03879 2.51939 4.19899
161 1 0 3.35919 3.35919
162 1 0.839798 4.19899 3.35919
163 1 0.839798 3.35919 4.19899
164 1 0 4.19899 4.19899
165 1 1.6796 3.35919 3.35919
166 1 2.51939 4.19899 3.35919
167 1 2.51939 3.35919 4.19899
168 1 1.6796 4.19899 4.19899
169 1 3.35919 3.35919 3.35919
170 1 4.19899 4.19899 3.35919
171 1 4.19899 3.35919 4.19899
172 1 3.35919 4.19899 4.19899
173 1 5.03879 3.35919 3.35919
174 1 5.87859 4.19899 3.35919
175 1 5.87859 3.35919 4.19899
176 1 5.03879 4.19899 4.19899
177 1 0 5.03879 3.35919
178 1 0.839798 5.87859 3.35919
179 1 0.839798 5.03879 4.19899
180 1 0 5.87859 4.19899
181 1 1.6796 5.03879 3.35919
182 1 2.51939 5.87859 3.35919
183 1 2.51939 5.03879 4.19899
184 1 1.6796 5.87859 4.19899
185 1 3.35919 5.03879 3.35919
186 1 4.19899 5.87859 3.35919
187 1 4.19899 5.03879 4.19899
188 1 3.35919 5.87859 4.19899
189 1 5.03879 5.03879 3.35919
190 1 5.87859 5.87859 3.35919
191 1 5.87859 5.03879 4.19899
192 1 5.03879 5.87859 4.19899
193 1 0 0 5.03879
194 1 0.839798 0.839798 5.03879
195 1 0.839798 0 5.87859
196 1 0 0.839798 5.87859
197 1 1.6796 0 5.03879
198 1 2.51939 0.839798 5.03879
199 1 2.51939 0 5.87859
200 1 1.6796 0.839798 5.87859
201 1 3.35919 0 5.03879
202 1 4.19899 0.839798 5.03879
203 1 4.19899 0 5.87859
204 1 3.35919 0.839798 5.87859
205 1 5.03879 0 5.03879
206 1 5.87859 0.839798 5.03879
207 1 5.87859 0 5.87859
208 1 5.03879 0.839798 5.87859
209 1 0 1.6796 5.03879
210 1 0.839798 2.51939 5.03879
211 1 0.839798 1.6796 5.87859
212 1 0 2.51939 5.87859
213 1 1.6796 1.6796 5.03879
214 1 2.51939 2.51939 5.03879
215 1 2.51939 1.6796 5.87859
216 1 1.6796 2.51939 5.87859
217 1 3.35919 1.6796 5.03879
218 1 4.19899 2.51939 5.03879
219 1 4.19899 1.6796 5.87859
220 1 3.35919 2.51939 5.87859
221 1 5.03879 1.6796 5.03879
222 1 5.87859 2.51939 5.03879
223 1 5.87859 1.6796 5.87859
224 1 5.03879 2.51939 5.87859
225 1 0 3.35919 5.03879
226 1 0.839798 4.19899 5.03879
227 1 0.839798 3.35919 5.87859
228 1 0 4.19899 5.87859
229 1 1.6796 3.35919 5.03879
230 1 2.51939 4.19899 5.03879
231 1 2.51939 3.35919 5.87859
232 1 1.6796 4.19899 5.87859
233 1 3.35919 3.35919 5.03879
234 1 4.19899 4.19899 5.03879
235 1 4.19899 3.35919 5.87859
236 1 3.35919 4.19899 5.87859
237 1 5.03879 3.35919 5.03879
238 1 5.87859 4.19899 5.03879
239 1 5.87859 3.35919 5.87859
240 1 5.03879 4.19899 5.87859
241 1 0 5.03879 5.03879
242 1 0.839798 5.87859 5.03879
243 1 0.839798 5.03879 5.87859
244 1 0 5.87859 5.87859
245 1 1.6796 5.03879 5.03879
246 1 2.51939 5.87859 5.03879
247 1 2.51939 5.03879 5.87859
248 1 1.6796 5.87859 5.87859
249 1 3.35919 5.03879 5.03879
250 1 4.19899 5.87859 5.03879
251 1 4.19899 5.03879 5.87859
252 1 3.35919 5.87859 5.87859
253 1 5.03879 5.03879 5.03879
254 1 5.87859 5.87859 5.03879
255 1 5.87859 5.03879 5.87859
256 1 5.03879 5.87859 5.87859
ITEM: TIMESTEP
10
ITEM: NUMBER OF ATOMS
256
ITEM: BOX BOUNDS pp pp pp
0.0000000000000000e+00 6.7183847655300291e+00
0.0000000000000000e+00 6.7183847655300291e+00
0.0000000000000000e+00 6.7183847655300291e+00
ITEM: ATOMS id type x y z
1 1 0.0374907 0.00708636 0.00547951
2 1 0.77709 0.870708 6.67742
3 1 0.815168 6.62745 0.892225
4 1 0.00794571 0.888739 0.800012
5 1 1.67346 0.0366685 0.000574425
6 1 2.60832 0.862719 0.091958
7 1 2.45898 6.70714 0.758798
8 1 1.64328 0.738158 0.741994
9 1 3.33294 6.62376 6.68954
10 1 4.22221 0.80684 0.0687205
11 1 4.13192 0.0973957 0.889561
12 1 3.26575 0.814128 0.85953
13 1 4.96193 0.0587877 0.0394601
14 1 5.84049 0.793763 0.0759657
15 1 5.95114 6.64904 0.759983
16 1 5.04519 0.839044 0.828417
17 1 6.62323 1.58607 6.6244
18 1 0.895454 2.54288 0.0616089
19 1 0.77313 1.76014 0.869909
20 1 0.0440514 2.42926 0.836645
21 1 1.66989 1.63485 0.0177927
22 1 2.5044 2.42187 0.0502456
23 1 2.61253 1.73887 0.842139
24 1 1.64588 2.46285 0.864057
25 1 3.38817 1.65619 6.63264
26 1 4.11384 2.48133 0.0359772
27 1 4.15804 1.74578 0.879211
28 1 3.41133 2.42661 0.78061
29 1 5.07564 1.76993 0.068257
30 1 5.78449 2.5581 0.0626039
31 1 5.95574 1.76214 0.754294
32 1 4.96098 2.5261 0.779613
33 1 6.67607 3.4474 0.0820008
34 1 0.849636 4.2282 6.64026
35 1 0.923242 3.39639 0.893352
36 1 6.62524 4.21723 0.774607
37 1 1.68451 3.42661 0.017941
38 1 2.46048 4.29285 0.062447
39 1 2.4618 3.27949 0.865198
40 1 1.66734 4.27478 0.861918
41 1 3.31189 3.45557 0.0682904
42 1 4.18187 4.28719 6.62593
43 1 4.14486 3.27638 0.914841
44 1 3.27153 4.2515 0.790559
45 1 4.99565 3.39297 0.0238055
46 1 5.85249 4.27856 0.0432479
47 1 5.93045 3.41113 0.905685
48 1 5.09333 4.16218 0.882568
49 1 0.0503244 4.93975 6.62236
50 1 0.800633 5.84762 0.09777
51 1 0.902212 4.95798 0.909745
52 1 6.65713 5.8431 0.742405
53 1 1.64382 5.13764 0.0167865
54 1 2.58211 5.85209 6.68299
55 1 2.43058 4.96166 0.900482
56 1 1.65394 5.91441 0.859443
57 1 3.31684 5.13645 6.63045
58 1 4.21715 5.88924 0.0694315
59 1 4.28571 5.0073 0.86268
60 1 3.31602 5.79261 0.822345
61 1 5.11802 5.1208 6.68922
62 1 5.79199 5.82622 6.69695
63 1 5.89391 4.95153 0.884186
64 1 5.1157 5.79068 0.815852
65 1 0.0131736 6.7155 1.64195
66 1 0.936985 0.739675 1.75256
67 1 0.906934 6.68624 2.43492
68 1 0.00303104 0.933702 2.42212
69 1 1.73713 0.00639527 1.63602
70 1 2.50983 0.826001 1.64021
71 1 2.59465 0.0587865 2.5533
72 1 1.67892 0.822985 2.4753
73 1 3.35306 6.68894 1.61053
74 1 4.20076 0.93824 1.69368
75 1 4.10552 0.0133667 2.51833
76 1 3.3344 0.879521 2.42261
77 1 5.04612 6.66015 1.63885
78 1 5.78832 0.862797 1.76509
79 1 5.87431 6.71416 2.44694
80 1 4.94455 0.803634 2.43602
81 1 0.0710752 1.64324 1.67007
82 1 0.747816 2.52988 1.75465
83 1 0.920812 1.71422 2.50569
84 1 6.69297 2.60832 2.56757
85 1 1.69579 1.75688 1.59102
86 1 2.59188 2.59286 1.6236
87 1 2.55838 1.69562 2.53064
88 1 1.66445 2.59678 2.54531
89 1 3.39666 1.66699 1.68283
90 1 4.27236 2.52814 1.62516
91 1 4.13086 1.65163 2.45029
92 1 3.44883 2.48914 2.53105
93 1 4.99566 1.62747 1.62933
94 1 5.88677 2.5867 1.73471
95 1 5.92499 1.72108 2.57473
96 1 5.02431 2.56505 2.57349
97 1 6.69199 3.32952 1.70052
98 1 0.917708 4.10753 1.67887
99 1 0.773322 3.38321 2.56129
100 1 0.0170006 4.17535 2.43327
101 1 1.77039 3.44017 1.6719
102 1 2.45786 4.2069 1.68939
103 1 2.5859 3.28987 2.51088
104 1 1.72514 4.1993 2.56673
105 1 3.31048 3.41822 1.69905
106 1 4.26732 4.29726 1.62839
107 1 4.21479 3.36257 2.52492
108 1 3.36517 4.25836 2.48649
109 1 5.08825 3.3366 1.67394
110 1 5.80789 4.29179 1.66609
111 1 5.90067 3.44929 2.48553
112 1 5.05677 4.20953 2.54619
113 1 0.0308695 5.00739 1.71595
114 1 0.761121 5.78014 1.71892
115 1 0.934122 4.94169 2.55354
116 1 0.0275848 5.95674 2.42439
117 1 1.58362 5.12291 1.59579
118 1 2.56633 5.93651 1.6742
119 1 2.59104 5.02293 2.59849
120 1 1.74246 5.82652 2.48329
121 1 3.41314 5.13573 1.76972
122 1 4.2394 5.90341 1.61345
123 1 4.27716 5.13221 2.54088
124 1 3.27369 5.82894 2.46109
125 1 5.00426 5.06325 1.6397
126 1 5.88702 5.78051 1.75394
127 1 5.93883 5.04253 2.61179
128 1 5.08889 5.92613 2.50408
129 1 0.0390944 6.67908 3.33546
130 1 0.88209 0.908879 3.34956
131 1 0.742317 6.69279 4.15797
132 1 0.00831436 0.800895 4.18604
133 1 1.60005 6.63602 3.35807
134 1 2.5797 0.870877 3.43164
135 1 2.57746 6.69675 4.12494
136 1 1.69561 0.79068 4.27819
137 1 3.40944 0.0390017 3.44425
138 1 4.12981 0.746006 3.31167
139 1 4.28963 6.64229 4.20314
140 1 3.42691 0.770594 4.13594
141 1 5.12903 6.63693 3.31563
142 1 5.82393 0.886476 3.30716
143 1 5.7874 0.0227095 4.11985
144 1 5.00441 0.899474 4.15337
145 1 0.0685795 1.58837 3.43537
146 1 0.874534 2.51469 3.33029
147 1 0.78816 1.62335 4.18341
148 1 6.71665 2.59267 4.12304
149 1 1.649 1.62971 3.31912
150 1 2.42298 2.52934 3.29482
151 1 2.53669 1.63687 4.23652
152 1 1.63645 2.60176 4.17481
153 1 3.37199 1.69204 3.27728
154 1 4.09943 2.52213 3.30941
155 1 4.13614 1.57708 4.28923
156 1 3.40672 2.53995 4.26294
157 1 4.96178 1.58978 3.3404
158 1 5.93875 2.54923 3.31348
159 1 5.83188 1.77623 4.25048
160 1 5.00673 2.5557 4.29506
161 1 0.0887784 3.35412 3.41711
162 1 0.894363 4.12196 3.43695
163 1 0.882924 3.31779 4.19199
164 1 0.0328842 4.21732 4.28553
165 1 1.66746 3.37075 3.29905
166 1 2.50259 4.28243 3.394
167 1 2.58817 3.33936 4.11324
168 1 1.60614 4.13993 4.14693
169 1 3.34359 3.32062 3.38495
170 1 4.25372 4.14165 3.34533
171 1 4.11065 3.27333 4.23437
172 1 3.3005 4.19738 4.16457
173 1 5.10447 3.25955 3.29205
174 1 5.94513 4.25481 3.30375
175 1 5.91509 3.41035 4.26827
176 1 4.96303 4.2457 4.1645
177 1 0.0789505 4.96493 3.38707
178 1 0.776559 5.8017 3.42315
179 1 0.934369 5.03128 4.17193
180 1 6.69438 5.86626 4.13604
181 1 1.60143 4.99018 3.39048
182 1 2.55755 5.80023 3.40424
183 1 2.4858 4.9436 4.13267
184 1 1.78258 5.79862 4.23344
185 1 3.44218 5.02377 3.30573
186 1 4.13541 5.92685 3.44256
187 1 4.19845 5.00303 4.1609
188 1 3.3263 5.90249 4.27132
189 1 5.02624 5.07903 3.42152
190 1 5.89448 5.84002 3.41832
191 1 5.82381 5.00166 4.16822
192 1 5.00756 5.92199 4.16344
193 1 6.6693 0.0899208 5.11507
194 1 0.907188 0.888045 5.08056
195 1 0.870983 6.69058 5.96092
196 1 0.0772083 0.909515 5.85601
197 1 1.70721 6.62236 4.9838
198 1 2.5202 0.869462 5.04719
199 1 2.57895 0.0820571 5.7861
200 1 1.64496 0.846473 5.92558
201 1 3.39153 6.71148 5.0231
202 1 4.26098 0.804962 5.02516
203 1 4.23626 6.64662 5.919
204 1 3.4428 0.920886 5.95805
205 1 5.11016 0.0732623 5.12671
206 1 5.86801 0.871434 5.06417
207 1 5.88367 6.6388 5.87529
208 1 4.97712 0.889885 5.97931
209 1 6.71177 1.71046 4.99442
210 1 0.9326 2.55885 5.13133
211 1 0.819314 1.76984 5.85817
212 1 6.69374 2.54162 5.91025
213 1 1.63131 1.72299 4.95428
214 1 2.52974 2.4953 4.95203
215 1 2.58741 1.58417 5.87446
216 1 1.66298 2.60833 5.89433
217 1 3.35847 1.58745 5.09104
218 1 4.22161 2.47634 5.13734
219 1 4.15284 1.68501 5.81274
220 1 3.39178 2.46294 5.80752
221 1 5.00953 1.62511 5.09942
222 1 5.87907 2.43766 5.08003
223 1 5.93661 1.59793 5.83501
224 1 4.97584 2.53529 5.92794
225 1 6.63044 3.36961 4.98702
226 1 0.76093 4.16743 5.08416
227 1 0.802071 3.33947 5.91939
228 1 6.69312 4.20321 5.84656
229 1 1.69354 3.42766 5.01242
230 1 2.44633 4.20121 5.00608
231 1 2.60837 3.42299 5.82072
232 1 1.61574 4.15111 5.91873
233 1 3.26709 3.40461 5.0557
234 1 4.2085 4.18951 5.07843
235 1 4.09869 3.40216 5.83365
236 1 3.43831 4.15371 5.78981
237 1 5.04938 3.2977 5.03453
238 1 5.8471 4.28061 4.98724
239 1 5.92661 3.35112 5.81319
240 1 5.0463 4.10472 5.77937
241 1 6.67722 4.97956 4.97819
242 1 0.925599 5.91755 5.07164
243 1 0.889455 5.06473 5.94129
244 1 6.62785 5.89607 5.91829
245 1 1.7023 5.01843 4.94093
246 1 2.58869 5.85267 5.06084
247 1 2.5511 5.11937 5.96411
248 1 1.5949 5.83957 5.80177
249 1 3.31783 5.04845 5.09383
250 1 4.19829 5.95491 5.09114
251 1 4.16699 4.9484 5.92558
252 1 3.28017 5.94655 5.94491
253 1 5.09608 5.12243 5.12009
254 1 5.90367 5.77792 4.97733
255 1 5.79779 5.13271 5.92258
256 1 4.94801 5.94554 5.87663
ITEM: TIMESTEP
20
ITEM: NUMBER OF ATOMS
256
ITEM: BOX BOUNDS pp pp pp
0.0000000000000000e+00 6.7183847655300291e+00
0.0000000000000000e+00 6.7183847655300291e+00
0.0000000000000000e+00 6.7183847655300291e+00
ITEM: ATOMS id type x y z
1 1 0.0732468 0.0156126 0.00684553
2 1 0.730978 0.901595 6.649
3 1 0.791454 6.54874 0.941914
4 1 0.0155547 0.930672 0.765828
5 1 1.66808 0.0334334 -0.0349845
6 1 2.65545 0.88945 0.129804
7 1 2.41832 6.68708 0.690833
8 1 1.60046 0.678019 0.68667
9 1 3.32245 6.58535 6.70868
10 1 4.21653 0.803805 0.131409
11 1 4.0831 0.182637 0.932317
12 1 3.22334 0.791539 0.911641
13 1 4.91011 0.0860279 0.0785447
14 1 5.80809 0.753655 0.134981
15 1 6.00263 6.59141 0.694485
16 1 5.04719 0.841916 0.830827
17 1 6.55075 1.52202 6.57221
18 1 0.943273 2.56953 0.110285
19 1 0.777899 1.77872 0.888774
20 1 0.0458837 2.42004 0.832229
21 1 1.65976 1.59426 0.0381867
22 1 2.48745 2.34484 0.0773339
23 1 2.68216 1.76257 0.865761
24 1 1.62051 2.45223 0.853897
25 1 3.41176 1.67867 6.60507
26 1 4.06592 2.45703 0.0296589
27 1 4.15402 1.76055 0.908359
28 1 3.41156 2.38616 0.750813
29 1 5.09468 1.81424 0.111767
30 1 5.71678 2.62644 0.105271
31 1 6.00752 1.81286 0.691924
32 1 4.89017 2.55364 0.744148
33 1 6.64286 3.50394 0.129295
34 1 0.853645 4.24037 6.5952
35 1 1.00015 3.41479 0.926868
36 1 6.58196 4.25175 0.748016
37 1 1.68993 3.48431 0.043556
38 1 2.3973 4.37616 0.0992528
39 1 2.41087 3.22895 0.850399
40 1 1.65449 4.28988 0.873118
41 1 3.26759 3.53547 0.121759
42 1 4.16979 4.29373 6.62435
43 1 4.08663 3.22692 0.965058
44 1 3.19953 4.31254 0.76284
45 1 4.95071 3.42802 0.0449866
46 1 5.81521 4.34325 0.0579255
47 1 5.96378 3.44769 0.968587
48 1 5.13123 4.12669 0.909031
49 1 0.0765304 4.87162 6.54868
50 1 0.768569 5.81693 0.177156
51 1 0.871203 4.89129 0.917893
52 1 6.59779 5.78886 0.660647
53 1 1.62188 5.2256 0.040552
54 1 2.57282 5.86665 6.70721
55 1 2.3749 4.94375 0.962252
56 1 1.63645 5.94781 0.869891
57 1 3.33904 5.18792 6.58596
58 1 4.23396 5.89689 0.138142
59 1 4.35368 4.99649 0.842584
60 1 3.27779 5.71238 0.809913
61 1 5.09628 5.12489 6.68134
62 1 5.77716 5.86239 6.68905
63 1 5.89359 4.9292 0.908731
64 1 5.18497 5.72254 0.810465
65 1 0.018875 6.72162 1.60197
66 1 1.00074 0.679234 1.77073
67 1 0.969536 6.6232 2.37938
68 1 0.00790137 0.993053 2.36044
69 1 1.79656 0.0042188 1.59746
70 1 2.49199 0.816826 1.60717
71 1 2.66376 0.110356 2.5863
72 1 1.70686 0.811013 2.45699
73 1 3.33946 6.66411 1.55859
74 1 4.17982 0.987406 1.6674
75 1 4.01374 0.0126691 2.50323
76 1 3.3114 0.90549 2.34063
77 1 5.05858 6.6113 1.59442
78 1 5.71543 0.887425 1.83386
79 1 5.87658 6.71113 2.38188
80 1 4.85713 0.76155 2.38222
81 1 0.128147 1.63014 1.64723
82 1 0.67103 2.54407 1.8222
83 1 0.991187 1.74334 2.48515
84 1 6.68056 2.68772 2.60367
85 1 1.71632 1.79073 1.54961
86 1 2.66349 2.62712 1.59614
87 1 2.58717 1.71214 2.53187
88 1 1.63919 2.66359 2.53926
89 1 3.40576 1.6751 1.66611
90 1 4.33835 2.51782 1.61543
91 1 4.0942 1.6406 2.41763
92 1 3.49339 2.47531 2.49167
93 1 4.97058 1.60355 1.58149
94 1 5.89461 2.63497 1.78763
95 1 5.96766 1.76406 2.61966
96 1 5.0052 2.55934 2.57472
97 1 6.67943 3.31171 1.71444
98 1 0.979965 4.04423 1.70203
99 1 0.726776 3.4051 2.59469
100 1 0.0343431 4.15925 2.36026
101 1 1.83308 3.47722 1.67765
102 1 2.4293 4.24146 1.70867
103 1 2.64428 3.23278 2.50741
104 1 1.77629 4.19271 2.60656
105 1 3.27572 3.48228 1.71023
106 1 4.31504 4.35567 1.608
107 1 4.22812 3.36691 2.52395
108 1 3.37932 4.30369 2.45453
109 1 5.12629 3.3232 1.67105
110 1 5.75325 4.35397 1.70049
111 1 5.91716 3.53117 2.45647
112 1 5.07384 4.22371 2.56915
113 1 0.0467775 4.96551 1.74348
114 1 0.7103 5.70693 1.73196
115 1 1.00247 4.85373 2.57166
116 1 0.0318046 6.02867 2.3719
117 1 1.55927 5.19866 1.58258
118 1 2.58887 5.98465 1.65419
119 1 2.63564 5.00474 2.66219
120 1 1.80354 5.77707 2.45137
121 1 3.47891 5.17522 1.80046
122 1 4.27175 5.92521 1.54928
123 1 4.35137 5.22134 2.55994
124 1 3.20415 5.84847 2.47168
125 1 4.99761 5.10017 1.62501
126 1 5.8966 5.68545 1.80985
127 1 5.99621 5.0653 2.68019
128 1 5.12942 5.95635 2.48447
129 1 0.0655553 6.64532 3.29826
130 1 0.918649 0.935249 3.3333
131 1 0.666382 6.66682 4.132
132 1 0.00663088 0.75952 4.18244
133 1 1.52537 6.55525 3.35892
134 1 2.633 0.899176 3.48848
135 1 2.61363 6.67772 4.06866
136 1 1.71032 0.743897 4.34363
137 1 3.42758 0.00497799 3.48229
138 1 4.10486 0.698572 3.2589
139 1 4.34517 6.62788 4.22449
140 1 3.48443 0.737712 4.13091
141 1 5.18926 6.57405 3.25776
142 1 5.77577 0.92186 3.25799
143 1 5.72104 0.052463 4.06984
144 1 4.97701 0.938731 4.12426
145 1 0.0942986 1.52309 3.47519
146 1 0.902337 2.50852 3.30626
147 1 0.767006 1.57947 4.19556
148 1 6.71453 2.63353 4.07563
149 1 1.64801 1.6016 3.2893
150 1 2.34552 2.53007 3.25296
151 1 2.55598 1.6 4.26754
152 1 1.62465 2.65618 4.15072
153 1 3.38293 1.69058 3.21452
154 1 4.0484 2.52482 3.30309
155 1 4.08109 1.50511 4.36538
156 1 3.42013 2.51482 4.32545
157 1 4.87768 1.52017 3.30443
158 1 5.9864 2.57679 3.2886
159 1 5.78702 1.85326 4.28093
160 1 4.97317 2.56761 4.36561
161 1 0.159677 3.37534 3.45576
162 1 0.896268 4.06289 3.4631
163 1 0.894717 3.29316 4.19812
164 1 0.0639577 4.2099 4.32432
165 1 1.66359 3.38278 3.25486
166 1 2.48631 4.29794 3.37207
167 1 2.62373 3.31983 4.051
168 1 1.5919 4.08925 4.14114
169 1 3.34423 3.2895 3.38623
170 1 4.29507 4.08691 3.32773
171 1 4.06245 3.23431 4.27037
172 1 3.25871 4.19422 4.13707
173 1 5.1659 3.21802 3.27687
174 1 6.00624 4.28025 3.27215
175 1 5.9091 3.46066 4.29093
176 1 4.90949 4.27372 4.14551
177 1 0.153911 4.88659 3.41455
178 1 0.734592 5.73987 3.46346
179 1 0.985283 5.0188 4.18093
180 1 6.66841 5.84857 4.0994
181 1 1.56802 4.94838 3.40082
182 1 2.59697 5.72841 3.44446
183 1 2.4545 4.90237 4.12818
184 1 1.87956 5.74222 4.24767
185 1 3.52306 5.00981 3.26244
186 1 4.07691 5.95272 3.5022
187 1 4.1818 4.98141 4.13183
188 1 3.31076 5.91396 4.32777
189 1 5.01132 5.11949 3.4619
190 1 5.90404 5.80168 3.46045
191 1 5.78014 4.96936 4.13638
192 1 5.01434 5.92182 4.13914
193 1 6.63055 0.168714 5.18079
194 1 0.963356 0.929205 5.11914
195 1 0.892893 6.66438 6.03123
196 1 0.152711 0.954264 5.80545
197 1 1.75351 6.54912 4.93217
198 1 2.51594 0.892153 5.04215
199 1 2.63116 0.155878 5.71227
200 1 1.61734 0.853739 5.96814
201 1 3.42324 6.71694 5.00865
202 1 4.31313 0.755243 5.02594
203 1 4.21752 6.63957 5.96876
204 1 3.52207 0.913409 5.999
205 1 5.16618 0.137793 5.20148
206 1 5.85955 0.895349 5.06812
207 1 5.87078 6.58079 5.88623
208 1 4.9227 0.938517 6.07211
209 1 6.7128 1.73645 4.95278
210 1 1.00079 2.60985 5.1887
211 1 0.80134 1.8468 5.84992
212 1 6.67089 2.55846 5.94229
213 1 1.59442 1.76527 4.87451
214 1 2.53447 2.47701 4.87645
215 1 2.634 1.50339 5.88024
216 1 1.66841 2.69512 5.92735
217 1 3.3565 1.50421 5.12024
218 1 4.25023 2.45865 5.19152
219 1 4.13911 1.67696 5.77777
220 1 3.39828 2.41905 5.74984
221 1 4.98862 1.57972 5.15369
222 1 5.87333 2.38024 5.13567
223 1 5.96527 1.53808 5.79152
224 1 4.92079 2.55207 5.98205
225 1 6.59456 3.37149 4.97212
226 1 0.706117 4.13436 5.13004
227 1 0.760231 3.32661 5.96222
228 1 6.65897 4.19636 5.81026
229 1 1.69846 3.47884 4.99118
230 1 2.39181 4.21067 4.97261
231 1 2.65022 3.47986 5.81236
232 1 1.57516 4.11144 5.9314
233 1 3.21338 3.4327 5.01055
234 1 4.22999 4.18559 5.08219
235 1 4.04505 3.38655 5.802
236 1 3.45006 4.16842 5.72899
237 1 5.05974 3.25435 5.04686
238 1 5.80871 4.34473 4.94883
239 1 5.95887 3.3453 5.76069
240 1 5.05777 4.02321 5.69983
241 1 6.64729 4.95726 4.94505
242 1 0.940812 5.94504 5.04779
243 1 0.923265 5.08149 5.98251
244 1 6.56811 5.89377 5.95782
245 1 1.72238 4.98547 4.87633
246 1 2.63319 5.83653 5.08852
247 1 2.53495 5.16224 5.98673
248 1 1.58421 5.80779 5.78076
249 1 3.28684 5.04934 5.14556
250 1 4.19347 6.01245 5.12605
251 1 4.1473 4.95404 5.88453
252 1 3.24116 5.99431 5.92441
253 1 5.11253 5.18611 5.18274
254 1 5.94056 5.70725 4.91601
255 1 5.75965 5.19819 5.9267
256 1 4.91799 5.96257 5.88625
ITEM: TIMESTEP
30
ITEM: NUMBER OF ATOMS
256
ITEM: BOX BOUNDS pp pp pp
0.0000000000000000e+00 6.7183847655300291e+00
0.0000000000000000e+00 6.7183847655300291e+00
0.0000000000000000e+00 6.7183847655300291e+00
ITEM: ATOMS id type x y z
1 1 0.104041 0.0244984 0.00538214
2 1 0.720741 0.931727 6.64753
3 1 0.77352 6.49778 0.982803
4 1 0.0218015 0.959049 0.744551
5 1 1.69038 -0.0356254 6.60654
6 1 2.6446 0.922056 0.0915078
7 1 2.415 6.67325 0.654619
8 1 1.54477 0.681164 0.702069
9 1 3.33896 6.61785 0.0706657
10 1 4.15862 0.863665 0.178485
11 1 4.09255 0.225893 0.958069
12 1 3.25673 0.785995 0.990827
13 1 4.90182 0.0576499 0.114311
14 1 5.79188 0.727607 0.158013
15 1 6.01317 6.58145 0.678154
16 1 5.03386 0.848075 0.860646
17 1 6.5284 1.49477 6.58969
18 1 0.954452 2.60442 0.112832
19 1 0.877488 1.72865 0.875681
20 1 0.0296893 2.52714 0.833417
21 1 1.6477 1.56532 0.0671958
22 1 2.46288 2.3028 0.0612489
23 1 2.67585 1.69802 0.927252
24 1 1.63196 2.50612 0.813143
25 1 3.41154 1.73119 6.6411
26 1 4.09161 2.46985 -0.0404451
27 1 4.19278 1.71404 0.902849
28 1 3.36832 2.44716 0.762145
29 1 5.08884 1.7806 0.114173
30 1 5.69329 2.74013 0.119195
31 1 5.99915 1.80574 0.667898
32 1 4.83097 2.61702 0.741541
33 1 6.62405 3.49633 0.108475
34 1 0.847727 4.21385 6.6202
35 1 1.06041 3.39044 0.92044
36 1 6.62426 4.31446 0.783646
37 1 1.69402 3.52415 0.0781709
38 1 2.32733 4.44478 0.0856106
39 1 2.37257 3.21975 0.775083
40 1 1.63974 4.2223 0.874417
41 1 3.22861 3.57719 0.142443
42 1 4.15968 4.23793 6.69308
43 1 4.01444 3.23536 0.977021
44 1 3.16071 4.3977 0.780173
45 1 4.90112 3.46656 0.0589305
46 1 5.76936 4.37942 0.0275618
47 1 5.96818 3.45998 1.01939
48 1 5.13967 4.09959 0.909525
49 1 0.045126 4.87051 6.52326
50 1 0.753328 5.7876 0.215507
51 1 0.743099 4.85191 0.876756
52 1 6.5474 5.68755 0.612651
53 1 1.6321 5.28758 0.0750978
54 1 2.49028 5.90683 0.0614761
55 1 2.37403 5.03424 1.01489
56 1 1.64141 5.97152 0.85989
57 1 3.42939 5.18959 6.583
58 1 4.24866 5.90391 0.204959
59 1 4.38891 5.0125 0.758439
60 1 3.24899 5.6414 0.810953
61 1 4.97687 5.06678 6.68645
62 1 5.79921 5.95678 6.68397
63 1 5.86613 4.99818 0.915936
64 1 5.2339 5.70927 0.825835
65 1 -0.000826683 0.03478 1.56367
66 1 1.00735 0.681151 1.7039
67 1 1.02876 6.51059 2.36401
68 1 0.00880309 0.981154 2.3736
69 1 1.84681 -0.00620176 1.57263
70 1 2.44697 0.822465 1.59989
71 1 2.71617 0.147564 2.62021
72 1 1.77905 0.806948 2.47995
73 1 3.31577 6.64497 1.54973
74 1 4.12215 0.96064 1.5861
75 1 3.92008 -0.015816 2.45913
76 1 3.29759 0.910066 2.28318
77 1 5.08911 6.58592 1.54297
78 1 5.68036 0.918774 1.87694
79 1 5.89007 6.71032 2.32757
80 1 4.77688 0.704589 2.37968
81 1 0.156271 1.66453 1.59329
82 1 0.633188 2.55775 1.86965
83 1 1.04379 1.75899 2.44982
84 1 6.69383 2.75067 2.61001
85 1 1.74885 1.75486 1.58435
86 1 2.73516 2.60085 1.61119
87 1 2.59274 1.73029 2.5116
88 1 1.59389 2.70899 2.46266
89 1 3.3729 1.72598 1.62345
90 1 4.38956 2.47858 1.68557
91 1 4.11847 1.64821 2.43804
92 1 3.47785 2.49317 2.38368
93 1 4.98335 1.62871 1.54736
94 1 5.90266 2.64009 1.84155
95 1 6.00751 1.80547 2.64044
96 1 4.97838 2.48918 2.51304
97 1 6.69907 3.32095 1.71485
98 1 1.00751 4.03963 1.77267
99 1 0.734194 3.42316 2.60127
100 1 0.0544246 4.14818 2.32886
101 1 1.85998 3.42872 1.70562
102 1 2.46002 4.32149 1.75383
103 1 2.68298 3.19469 2.51618
104 1 1.83247 4.17115 2.60699
105 1 3.2644 3.55882 1.70164
106 1 4.32592 4.34531 1.63849
107 1 4.23802 3.36603 2.50915
108 1 3.41068 4.31869 2.42185
109 1 5.13392 3.32899 1.67465
110 1 5.72893 4.37518 1.8022
111 1 5.91688 3.58763 2.43924
112 1 5.08521 4.24601 2.5906
113 1 0.0240405 4.91715 1.7386
114 1 0.701015 5.68664 1.70387
115 1 1.00806 4.78824 2.54799
116 1 -0.00207075 6.08783 2.38792
117 1 1.60666 5.2339 1.62611
118 1 2.56502 5.99497 1.61358
119 1 2.63861 4.99868 2.68197
120 1 1.86592 5.73924 2.43941
121 1 3.55958 5.16307 1.77242
122 1 4.28124 5.93683 1.48396
123 1 4.40967 5.29727 2.57233
124 1 3.15855 5.93812 2.55523
125 1 5.02454 5.15486 1.65995
126 1 5.91752 5.60142 1.82704
127 1 6.0529 5.12118 2.7044
128 1 5.1533 5.94111 2.42966
129 1 0.0690786 6.62061 3.23919
130 1 0.936556 0.886041 3.308
131 1 0.636368 6.63352 4.13546
132 1 -0.0171872 0.71938 4.19733
133 1 1.45841 6.47686 3.36423
134 1 2.67626 0.914985 3.51244
135 1 2.59388 6.66398 4.05279
136 1 1.71897 0.704872 4.3789
137 1 3.40007 6.62968 3.44645
138 1 4.12839 0.715831 3.20952
139 1 4.3512 6.70354 4.26856
140 1 3.50999 0.719849 4.18871
141 1 5.20047 6.55876 3.19927
142 1 5.73624 0.934868 3.2148
143 1 5.69676 0.0983161 4.07636
144 1 4.96286 0.944024 4.13172
145 1 0.0453108 1.50015 3.45167
146 1 0.916222 2.50227 3.2933
147 1 0.791687 1.54819 4.24348
148 1 6.70845 2.61046 4.08755
149 1 1.70945 1.61725 3.27883
150 1 2.30266 2.51177 3.25484
151 1 2.5786 1.58394 4.28365
152 1 1.67964 2.65669 4.12543
153 1 3.39396 1.66798 3.18892
154 1 4.07155 2.52044 3.35555
155 1 4.06814 1.51493 4.4172
156 1 3.3978 2.41602 4.3773
157 1 4.78213 1.49075 3.23085
158 1 5.99427 2.59723 3.32039
159 1 5.7486 1.89294 4.26987
160 1 4.93174 2.52271 4.36937
161 1 0.155547 3.41832 3.46
162 1 0.868651 4.06885 3.42302
163 1 0.847037 3.30504 4.23732
164 1 0.0905039 4.15642 4.282
165 1 1.67225 3.39543 3.2554
166 1 2.48613 4.21239 3.31995
167 1 2.59 3.29845 4.03663
168 1 1.65825 4.06502 4.17771
169 1 3.38089 3.27811 3.33928
170 1 4.31006 4.03827 3.30661
171 1 4.07961 3.27199 4.30294
172 1 3.24476 4.18982 4.11734
173 1 5.21383 3.25979 3.32496
174 1 6.05561 4.23942 3.28634
175 1 5.83991 3.5118 4.24282
176 1 4.90315 4.26521 4.15617
177 1 0.21553 4.80209 3.43918
178 1 0.737217 5.70943 3.45895
179 1 0.953813 4.9978 4.24108
180 1 6.65459 5.82421 4.12157
181 1 1.61401 4.91749 3.38948
182 1 2.64642 5.67436 3.47561
183 1 2.45152 4.89902 4.18201
184 1 1.94946 5.7507 4.22618
185 1 3.59789 4.99763 3.23176
186 1 4.05515 5.91512 3.53045
187 1 4.13136 4.98842 4.12197
188 1 3.32923 5.90153 4.35043
189 1 4.98339 5.14871 3.4481
190 1 5.886 5.7733 3.4635
191 1 5.76431 4.94534 4.09943
192 1 5.0729 5.87112 4.13965
193 1 6.60571 0.206629 5.21898
194 1 1.0099 0.959965 5.14205
195 1 0.880633 6.63504 6.05731
196 1 0.218538 0.987542 5.72662
197 1 1.82988 6.51009 4.89405
198 1 2.49086 0.905675 5.00544
199 1 2.673 0.198541 5.68977
200 1 1.60465 0.859789 6.00302
201 1 3.44981 0.0326348 4.99497
202 1 4.34141 0.68382 5.05274
203 1 4.13351 6.70939 6.03226
204 1 3.58509 0.788653 6.00236
205 1 5.18036 0.17911 5.2508
206 1 5.85585 0.895631 4.9961
207 1 5.83089 6.57245 5.92055
208 1 4.88578 0.981443 6.14845
209 1 6.72155 1.754 4.91777
210 1 1.02789 2.68115 5.17703
211 1 0.787118 1.89775 5.865
212 1 6.65023 2.56311 5.97685
213 1 1.58407 1.80865 4.80282
214 1 2.51267 2.47444 4.83031
215 1 2.64802 1.4445 5.91203
216 1 1.71432 2.783 5.99737
217 1 3.35411 1.43712 5.12067
218 1 4.28897 2.4887 5.16354
219 1 4.16776 1.64625 5.80095
220 1 3.35719 2.39473 5.71186
221 1 4.98971 1.5512 5.19026
222 1 5.85442 2.37314 5.21865
223 1 5.94217 1.53094 5.76338
224 1 4.88488 2.57204 6.04776